4
Initial Energy: -121.6344009087 | Final Energy: -133.9101801511
C   0.362   0.655   0.000
H   4.289  -0.831   0.000
H  -2.987   3.178   0.000
H  -1.658  -3.000   0.000