4
Initial Energy: -121.6344009087 | Final Energy: -133.9101801511
C       0.1913      0.3468      0.0000
H       2.2682     -0.4397      0.0000
H      -1.5816      1.6827      0.0000
H      -0.8775     -1.5910      0.0000