2
Initial Energy: -26.7568909573 | Final Energy: -30.7765957968
H       0.8589      0.0000      0.0000
H       1.7837      0.0000      0.0000