3
Initial Energy: -156.0087645078 | Final Energy: -169.2564795814
O       0.0000      0.0000     -0.4787
H       0.0000      1.6781     -1.2284
H       0.0000     -1.6781     -1.2284