2
Initial Energy: -171.5505372419 | Final Energy: -179.4359377825
H   1.462   0.000   0.000
F   4.678   0.000   0.000