2
Initial Energy: -171.5505372419 | Final Energy: -179.4359377825
H       0.7735      0.0000      0.0000
F       2.4764      0.0000      0.0000