2
Initial Energy: -128.7030032406 | Final Energy: -135.6169666090
H   1.534   0.000   0.000
O   4.999   0.000   0.000