2
Initial Energy: -128.7030032406 | Final Energy: -135.6169666090
H       0.8116      0.0000      0.0000
O       2.6465      0.0000      0.0000