4
Initial Energy: -121.6344009087 | Final Energy: -133.9101801511
C       0.10123996      0.18358511     -0.00000000
H       1.20067105     -0.23267397     -0.00000000
H      -0.83747364      0.89128406      0.00000000
H      -0.46443738     -0.84219520      0.00000000