2
Initial Energy: -26.7568909573 | Final Energy: -30.7765957968
H       0.45427074      0.00000000      0.00000000
H       0.94412926      0.00000000      0.00000000
