3
Initial Energy: -156.0087645078 | Final Energy: -169.2564795814
O       0.00000000      0.00000000     -0.25343913
H      -0.00000000      0.88843154     -0.64993043
H       0.00000000     -0.88843154     -0.64993043
