2
Initial Energy: -171.5505372419 | Final Energy: -179.4359377825
H       0.40939860      0.00000000      0.00000000
F       1.31060140      0.00000000      0.00000000
