2
Initial Energy: -128.7030032406 | Final Energy: -135.6169666090
H       0.42957109      0.00000000      0.00000000
O       1.40042891      0.00000000      0.00000000
